
     Program PWSCF v.7.3 starts on 26Mar2024 at 17:45:14 

     This program is part of the open-source Quantum ESPRESSO suite
     for quantum simulation of materials; please cite
         "P. Giannozzi et al., J. Phys.:Condens. Matter 21 395502 (2009);
         "P. Giannozzi et al., J. Phys.:Condens. Matter 29 465901 (2017);
         "P. Giannozzi et al., J. Chem. Phys. 152 154105 (2020);
          URL http://www.quantum-espresso.org", 
     in publications or presentations arising from this work. More details at
     http://www.quantum-espresso.org/quote

     Parallel version (MPI & OpenMP), running on       4 processor cores
     Number of MPI processes:                 4
     Threads/MPI process:                     1

     MPI processes distributed on     1 nodes
     600 MiB available memory on the printing compute node when the environment starts

     Waiting for input...
     Reading input from standard input
Warning: card &CELL ignored
Warning: card    CELL_DYNAMICS = 'BFGS' ignored
Warning: card    CELL_DOFREE = 'IBRAV' ignored
Warning: card    PRESS = 0.0001 ignored
Warning: card &END ignored

     Current dimensions of program PWSCF are:
     Max number of different atomic species (ntypx) = 10
     Max number of k-points (npk) =  40000
     Max angular momentum in pseudopotentials (lmaxx) =  4

     R & G space division:  proc/nbgrp/npool/nimage =       4
     Subspace diagonalization in iterative solution of the eigenvalue problem:
     a serial algorithm will be used


     Parallelization info
     --------------------
     sticks:   dense  smooth     PW     G-vecs:    dense   smooth      PW
     Min         540     540    151                18860    18860    2840
     Max         541     541    153                18863    18863    2841
     Sum        2161    2161    609                75445    75445   11363

     Using Slab Decomposition



     bravais-lattice index     =            1
     lattice parameter (alat)  =       9.2145  a.u.
     unit-cell volume          =     782.3665 (a.u.)^3
     number of atoms/cell      =           14
     number of atomic types    =            3
     number of electrons       =        62.00
     number of Kohn-Sham states=           37
     kinetic-energy cutoff     =      80.0000  Ry
     charge density cutoff     =     320.0000  Ry
     scf convergence threshold =      1.0E-06
     mixing beta               =       0.7000
     number of iterations used =            8  plain     mixing
     Exchange-correlation= PBE
                           (   1   4   3   4   0   0   0)

     celldm(1)=   9.214464  celldm(2)=   0.000000  celldm(3)=   0.000000
     celldm(4)=   0.000000  celldm(5)=   0.000000  celldm(6)=   0.000000

     crystal axes: (cart. coord. in units of alat)
               a(1) = (   1.000000   0.000000   0.000000 )  
               a(2) = (   0.000000   1.000000   0.000000 )  
               a(3) = (   0.000000   0.000000   1.000000 )  

     reciprocal axes: (cart. coord. in units 2 pi/alat)
               b(1) = (  1.000000  0.000000  0.000000 )  
               b(2) = (  0.000000  1.000000  0.000000 )  
               b(3) = (  0.000000  0.000000  1.000000 )  


     PseudoPot. # 1 for Sr read from file:
     /home/cataldo/QE-pseudopotentials/Sr_ONCV_PBE_sr.upf
     MD5 check sum: 2bcdb3d100bfcbec86a37c93652a2d42
     Pseudo is Norm-conserving + core correction, Zval = 10.0
     Generated using ONCVPSP code by D. R. Hamann
     Using radial grid of 1834 points,  6 beta functions with: 
                l(1) =   0
                l(2) =   0
                l(3) =   1
                l(4) =   1
                l(5) =   2
                l(6) =   2

     PseudoPot. # 2 for B  read from file:
     /home/cataldo/QE-pseudopotentials/B_ONCV_PBE_sr.upf
     MD5 check sum: 12e13f68e8dc593c0a1d43390bab284b
     Pseudo is Norm-conserving + core correction, Zval =  3.0
     Generated using ONCVPSP code by D. R. Hamann
     Using radial grid of 1534 points,  4 beta functions with: 
                l(1) =   0
                l(2) =   0
                l(3) =   1
                l(4) =   1

     PseudoPot. # 3 for C  read from file:
     /home/cataldo/QE-pseudopotentials/C_ONCV_PBE_sr.upf
     MD5 check sum: be7deea5c8a9eeec940f0cd39a542f08
     Pseudo is Norm-conserving + core correction, Zval =  4.0
     Generated using ONCVPSP code by D. R. Hamann
     Using radial grid of 1248 points,  4 beta functions with: 
                l(1) =   0
                l(2) =   0
                l(3) =   1
                l(4) =   1

     atomic species   valence    mass     pseudopotential
     Sr               10.00    87.62000     Sr( 1.00)
     B                 3.00    10.81100     B ( 1.00)
     C                 4.00    12.00100     C ( 1.00)

     48 Sym. Ops., with inversion, found (24 have fractional translation)



   Cartesian axes

     site n.     atom                  positions (alat units)
         1        Sr     tau(   1) = (   0.0000000   0.0000000   0.0000000  )
         2        Sr     tau(   2) = (   0.5000000   0.5000000   0.5000000  )
         3        B      tau(   3) = (   0.0000000   0.2500000   0.5000000  )
         4        B      tau(   4) = (   0.0000000   0.7500000   0.5000000  )
         5        B      tau(   5) = (   0.5000000   0.0000000   0.2500000  )
         6        B      tau(   6) = (   0.5000000   0.0000000   0.7500000  )
         7        B      tau(   7) = (   0.2500000   0.5000000   0.0000000  )
         8        B      tau(   8) = (   0.7500000   0.5000000   0.0000000  )
         9        C      tau(   9) = (   0.0000000   0.5000000   0.2500000  )
        10        C      tau(  10) = (   0.0000000   0.5000000   0.7500000  )
        11        C      tau(  11) = (   0.2500000   0.0000000   0.5000000  )
        12        C      tau(  12) = (   7.7500000   0.0000000   0.5000000  )
        13        C      tau(  13) = (   0.5000000   0.2500000   0.0000000  )
        14        C      tau(  14) = (   0.5000000   0.7500000   0.0000000  )

     number of k points=    60  Methfessel-Paxton smearing, width (Ry)=  0.0200
                       cart. coord. in units 2pi/alat
        k(    1) = (   0.0000000   0.0000000   0.0000000), wk =   0.0044643
        k(    2) = (   0.0000000   0.0000000   0.1428571), wk =   0.0089286
        k(    3) = (   0.0000000   0.0000000   0.2857143), wk =   0.0089286
        k(    4) = (   0.0000000   0.0000000   0.4285714), wk =   0.0089286
        k(    5) = (   0.0000000   0.1250000   0.0000000), wk =   0.0178571
        k(    6) = (   0.0000000   0.1250000   0.1428571), wk =   0.0357143
        k(    7) = (   0.0000000   0.1250000   0.2857143), wk =   0.0357143
        k(    8) = (   0.0000000   0.1250000   0.4285714), wk =   0.0357143
        k(    9) = (   0.0000000   0.2500000   0.0000000), wk =   0.0178571
        k(   10) = (   0.0000000   0.2500000   0.1428571), wk =   0.0357143
        k(   11) = (   0.0000000   0.2500000   0.2857143), wk =   0.0357143
        k(   12) = (   0.0000000   0.2500000   0.4285714), wk =   0.0357143
        k(   13) = (   0.0000000   0.3750000   0.0000000), wk =   0.0178571
        k(   14) = (   0.0000000   0.3750000   0.1428571), wk =   0.0357143
        k(   15) = (   0.0000000   0.3750000   0.2857143), wk =   0.0357143
        k(   16) = (   0.0000000   0.3750000   0.4285714), wk =   0.0357143
        k(   17) = (   0.0000000  -0.5000000   0.0000000), wk =   0.0089286
        k(   18) = (   0.0000000  -0.5000000   0.1428571), wk =   0.0178571
        k(   19) = (   0.0000000  -0.5000000   0.2857143), wk =   0.0178571
        k(   20) = (   0.0000000  -0.5000000   0.4285714), wk =   0.0178571
        k(   21) = (   0.1250000   0.1250000   0.0000000), wk =   0.0178571
        k(   22) = (   0.1250000   0.1250000   0.1428571), wk =   0.0357143
        k(   23) = (   0.1250000   0.1250000   0.2857143), wk =   0.0357143
        k(   24) = (   0.1250000   0.1250000   0.4285714), wk =   0.0357143
        k(   25) = (   0.1250000   0.2500000   0.0000000), wk =   0.0357143
        k(   26) = (   0.1250000   0.2500000   0.1428571), wk =   0.0714286
        k(   27) = (   0.1250000   0.2500000   0.2857143), wk =   0.0714286
        k(   28) = (   0.1250000   0.2500000   0.4285714), wk =   0.0714286
        k(   29) = (   0.1250000   0.3750000   0.0000000), wk =   0.0357143
        k(   30) = (   0.1250000   0.3750000   0.1428571), wk =   0.0714286
        k(   31) = (   0.1250000   0.3750000   0.2857143), wk =   0.0714286
        k(   32) = (   0.1250000   0.3750000   0.4285714), wk =   0.0714286
        k(   33) = (   0.1250000  -0.5000000   0.0000000), wk =   0.0178571
        k(   34) = (   0.1250000  -0.5000000   0.1428571), wk =   0.0357143
        k(   35) = (   0.1250000  -0.5000000   0.2857143), wk =   0.0357143
        k(   36) = (   0.1250000  -0.5000000   0.4285714), wk =   0.0357143
        k(   37) = (   0.2500000   0.2500000   0.0000000), wk =   0.0178571
        k(   38) = (   0.2500000   0.2500000   0.1428571), wk =   0.0357143
        k(   39) = (   0.2500000   0.2500000   0.2857143), wk =   0.0357143
        k(   40) = (   0.2500000   0.2500000   0.4285714), wk =   0.0357143
        k(   41) = (   0.2500000   0.3750000   0.0000000), wk =   0.0357143
        k(   42) = (   0.2500000   0.3750000   0.1428571), wk =   0.0714286
        k(   43) = (   0.2500000   0.3750000   0.2857143), wk =   0.0714286
        k(   44) = (   0.2500000   0.3750000   0.4285714), wk =   0.0714286
        k(   45) = (   0.2500000  -0.5000000   0.0000000), wk =   0.0178571
        k(   46) = (   0.2500000  -0.5000000   0.1428571), wk =   0.0357143
        k(   47) = (   0.2500000  -0.5000000   0.2857143), wk =   0.0357143
        k(   48) = (   0.2500000  -0.5000000   0.4285714), wk =   0.0357143
        k(   49) = (   0.3750000   0.3750000   0.0000000), wk =   0.0178571
        k(   50) = (   0.3750000   0.3750000   0.1428571), wk =   0.0357143
        k(   51) = (   0.3750000   0.3750000   0.2857143), wk =   0.0357143
        k(   52) = (   0.3750000   0.3750000   0.4285714), wk =   0.0357143
        k(   53) = (   0.3750000  -0.5000000   0.0000000), wk =   0.0178571
        k(   54) = (   0.3750000  -0.5000000   0.1428571), wk =   0.0357143
        k(   55) = (   0.3750000  -0.5000000   0.2857143), wk =   0.0357143
        k(   56) = (   0.3750000  -0.5000000   0.4285714), wk =   0.0357143
        k(   57) = (  -0.5000000  -0.5000000   0.0000000), wk =   0.0044643
        k(   58) = (  -0.5000000  -0.5000000   0.1428571), wk =   0.0089286
        k(   59) = (  -0.5000000  -0.5000000   0.2857143), wk =   0.0089286
        k(   60) = (  -0.5000000  -0.5000000   0.4285714), wk =   0.0089286

     Dense  grid:    75445 G-vectors     FFT dimensions: (  54,  54,  54)

     Estimated max dynamical RAM per process >     107.90 MB

     Estimated total dynamical RAM >     431.62 MB

     Initial potential from superposition of free atoms

     starting charge      61.9816, renormalised to      62.0000
     Starting wfcs are   58 randomized atomic wfcs

     total cpu time spent up to now is       12.0 secs

     Self-consistent Calculation

     iteration #  1     ecut=    80.00 Ry     beta= 0.70
     Davidson diagonalization with overlap
     ethr =  1.00E-02,  avg # of iterations =  4.1

     total cpu time spent up to now is       36.4 secs

     total energy              =    -244.13337649 Ry
     estimated scf accuracy    <       0.84337008 Ry

     iteration #  2     ecut=    80.00 Ry     beta= 0.70
     Davidson diagonalization with overlap
     ethr =  1.36E-03,  avg # of iterations =  4.0

     total cpu time spent up to now is       60.4 secs

     total energy              =    -244.38835283 Ry
     estimated scf accuracy    <       0.19079379 Ry

     iteration #  3     ecut=    80.00 Ry     beta= 0.70
     Davidson diagonalization with overlap
     ethr =  3.08E-04,  avg # of iterations =  3.9

     total cpu time spent up to now is       81.3 secs

     total energy              =    -244.41830161 Ry
     estimated scf accuracy    <       0.00386827 Ry

     iteration #  4     ecut=    80.00 Ry     beta= 0.70
     Davidson diagonalization with overlap
     c_bands:  1 eigenvalues not converged
     c_bands:  1 eigenvalues not converged
     c_bands:  1 eigenvalues not converged
     c_bands:  1 eigenvalues not converged
     c_bands:  1 eigenvalues not converged
     c_bands:  1 eigenvalues not converged
     c_bands:  2 eigenvalues not converged
     c_bands:  1 eigenvalues not converged
     c_bands:  1 eigenvalues not converged
     c_bands:  1 eigenvalues not converged
     c_bands:  1 eigenvalues not converged
     c_bands:  1 eigenvalues not converged
     c_bands:  1 eigenvalues not converged
     c_bands:  2 eigenvalues not converged
     ethr =  6.24E-06,  avg # of iterations = 15.1

     total cpu time spent up to now is      123.9 secs

     total energy              =    -244.42085929 Ry
     estimated scf accuracy    <       0.00386771 Ry

     iteration #  5     ecut=    80.00 Ry     beta= 0.70
     Davidson diagonalization with overlap
     ethr =  6.24E-06,  avg # of iterations =  3.3

     total cpu time spent up to now is      148.7 secs

     total energy              =    -244.42213216 Ry
     estimated scf accuracy    <       0.00255274 Ry

     iteration #  6     ecut=    80.00 Ry     beta= 0.70
     Davidson diagonalization with overlap
     ethr =  4.12E-06,  avg # of iterations =  2.2

     total cpu time spent up to now is      166.9 secs

     total energy              =    -244.42225355 Ry
     estimated scf accuracy    <       0.00022132 Ry

     iteration #  7     ecut=    80.00 Ry     beta= 0.70
     Davidson diagonalization with overlap
     ethr =  3.57E-07,  avg # of iterations =  4.5

     total cpu time spent up to now is      193.5 secs

     total energy              =    -244.42238804 Ry
     estimated scf accuracy    <       0.00006526 Ry

     iteration #  8     ecut=    80.00 Ry     beta= 0.70
     Davidson diagonalization with overlap
     ethr =  1.05E-07,  avg # of iterations =  1.6

     total cpu time spent up to now is      210.1 secs

     total energy              =    -244.42238376 Ry
     estimated scf accuracy    <       0.00001701 Ry

     iteration #  9     ecut=    80.00 Ry     beta= 0.70
     Davidson diagonalization with overlap
     ethr =  2.74E-08,  avg # of iterations =  3.4

     total cpu time spent up to now is      231.9 secs

     End of self-consistent calculation

          k = 0.0000 0.0000 0.0000 (  9459 PWs)   bands (ev):

   -21.6261 -21.5741  -4.3817  -4.3817  -4.3817  -3.8876  -3.8876  -3.8876
    -3.3683  -1.1232  -1.1232   2.6942   2.6942   2.6942   3.2996   3.2996
     4.3709   5.6960   5.6960   5.6960   7.4477   7.4477   7.4477   9.5960
     9.5960   9.5960  10.1144  10.1144  10.1144  13.4387  13.4387  13.4387
    17.2703  17.2703  17.2704  18.8071  18.8071

          k = 0.0000 0.0000 0.1429 (  9462 PWs)   bands (ev):

   -21.6230 -21.5761  -4.4827  -4.3538  -4.3538  -4.2160  -3.9076  -3.9076
    -2.9431  -1.0299  -1.0007   1.9290   2.6378   2.6378   3.3791   3.4474
     4.8224   5.4899   5.4899   6.1625   7.5301   7.7843   7.7843   9.4531
     9.5850   9.5850   9.6191  10.2766  10.2766  12.9434  13.3475  13.3475
    16.5851  17.4193  17.4194  18.1969  18.3981

          k = 0.0000 0.0000 0.2857 (  9470 PWs)   bands (ev):

   -21.6145 -21.5821  -4.6799  -4.5803  -4.2774  -4.2774  -3.9663  -3.9663
    -2.2910  -0.8643  -0.7577   0.9942   2.5138   2.5138   3.3030   3.5477
     5.1754   5.1754   5.8118   7.1913   7.7702   8.3947   8.3947   8.5294
     9.0824   9.5255   9.5255  10.7806  10.7806  11.7128  13.0661  13.0661
    15.6933  17.0344  17.5792  17.5794  17.9685

          k = 0.0000 0.0000 0.4286 (  9462 PWs)   bands (ev):

   -21.6030 -21.5915  -4.8106  -4.7859  -4.1720  -4.1720  -4.0575  -4.0575
    -1.6282  -1.0792  -0.3293   0.2418   2.4173   2.4173   3.4283   3.6061
     4.9923   4.9923   6.6351   7.4523   8.1448   8.5792   8.6082   8.8634
     8.8634   9.3898   9.3898  10.1608  11.5185  11.5185  12.5843  12.5843
    15.4439  15.9730  17.0058  17.0058  18.3188

          k = 0.0000 0.1250 0.0000 (  9466 PWs)   bands (ev):

   -21.6237 -21.5757  -4.4611  -4.3603  -4.3603  -4.1633  -3.9029  -3.9029
    -3.0185  -1.0516  -1.0253   2.0520   2.6502   2.6502   3.3615   3.4606
     4.7132   5.5302   5.5302   6.0644   7.5109   7.7150   7.7150   9.4856
     9.5881   9.5881   9.7274  10.2381  10.2381  13.0546  13.3689  13.3689
    16.7124  17.3842  17.3842  18.3189  18.4802

          k = 0.0000 0.1250 0.1429 (  9455 PWs)   bands (ev):

   -21.6208 -21.5775  -4.5444  -4.3667  -4.3445  -4.3338  -3.9207  -3.9060
    -2.7386  -0.9549  -0.9157   1.8708   2.0226   2.5930   3.3756   3.9217
     4.9143   5.3758   5.8186   6.0456   7.5004   7.9660   8.0944   9.2235
     9.5348   9.7394   9.7668   9.9447  10.3857  12.8275  13.0172  13.2853
    16.6902  16.9388  17.4582  17.7854  18.1734

          k = 0.0000 0.1250 0.2857 (  9444 PWs)   bands (ev):

   -21.6128 -21.5828  -4.7311  -4.6639  -4.2686  -4.2615  -3.9736  -3.9542
    -2.1746  -0.8063  -0.6830   0.9697   1.9273   2.4678   3.3639   4.0802
     5.1128   5.4418   5.8997   6.9905   7.6725   8.1665   8.6817   8.8763
     8.9643   9.4071   9.7914  10.5358  10.8506  11.6379  12.7201  13.0251
    15.8416  16.8001  17.4519  17.4962  17.5403

          k = 0.0000 0.1250 0.4286 (  9431 PWs)   bands (ev):

   -21.6021 -21.5914  -4.8609  -4.8441  -4.1626  -4.1595  -4.0570  -4.0418
    -1.5551  -1.0219  -0.2938   0.2520   1.9241   2.3705   3.4192   4.1730
     4.9494   5.3175   6.6485   7.3751   7.9876   8.3185   8.3887   9.0069
     9.2345   9.2709   9.6924  10.1196  11.3299  11.5442  12.2720  12.5772
    15.5490  15.9256  16.9673  16.9926  18.0201

          k = 0.0000 0.2500 0.0000 (  9450 PWs)   bands (ev):

   -21.6170 -21.5802  -4.6315  -4.5021  -4.3002  -4.3002  -3.9482  -3.9482
    -2.4586  -0.8758  -0.8415   1.2140   2.5460   2.5460   3.3213   3.5064
     5.2460   5.2460   5.5698   6.8971   7.6964   8.2447   8.2447   8.8208
     9.1899   9.5476   9.5476  10.6229  10.6229  12.0650  13.1557  13.1557
    15.8726  17.3360  17.6672  17.6672  17.9194

          k = 0.0000 0.2500 0.1429 (  9444 PWs)   bands (ev):

   -21.6146 -21.5815  -4.6999  -4.6213  -4.2882  -4.2780  -3.9600  -3.9365
    -2.2882  -0.8091  -0.7291   1.1728   1.8317   2.4874   3.3478   4.1765
     5.1544   5.4694   5.8090   6.6733   7.6037   8.1767   8.6257   8.9096
     9.1759   9.4182   9.8395  10.2941  10.7293  11.9538  12.7102  13.0935
    16.0440  16.9954  17.2325  17.5816  17.6030

          k = 0.0000 0.2500 0.2857 (  9458 PWs)   bands (ev):

   -21.6082 -21.5853  -4.8593  -4.8330  -4.2216  -4.2180  -3.9965  -3.9479
    -1.8798  -0.7198  -0.5161   0.8590   1.3006   2.3594   3.3057   4.9321
     4.9741   5.9731   6.2353   6.6608   7.6317   8.0529   8.4664   9.0539
     9.2544   9.3726  10.1397  10.3234  11.0723  11.2796  11.9580  12.8943
    15.8330  16.5051  16.8448  17.2914  17.3459

          k = 0.0000 0.2500 0.4286 (  9439 PWs)   bands (ev):

   -21.5998 -21.5916  -4.9822  -4.9700  -4.1380  -4.1172  -4.0575  -4.0078
    -1.3813  -0.9185  -0.2523   0.2836   1.3701   2.2604   3.3534   4.8486
     5.2521   5.9922   6.6488   7.1071   7.8198   8.1130   8.1604   8.8781
     9.1045   9.9025   9.9027  10.2241  10.9072  11.5099  11.6132  12.5463
    15.5708  15.8759  16.7099  16.8848  17.5989

          k = 0.0000 0.3750 0.0000 (  9450 PWs)   bands (ev):

   -21.6075 -21.5876  -4.7767  -4.7298  -4.2131  -4.2131  -4.0204  -4.0204
    -1.8721  -0.9484  -0.5066   0.4998   2.4446   2.4446   3.3510   3.6119
     5.0405   5.0405   6.3488   7.8274   7.9909   8.0246   8.7195   8.7195
     8.7901   9.4464   9.4464  10.7593  11.2395  11.2395  12.7824  12.7824
    15.4429  16.3288  17.1813  17.1813  18.3573

          k = 0.0000 0.3750 0.1429 (  9443 PWs)   bands (ev):

   -21.6059 -21.5880  -4.8406  -4.8126  -4.1979  -4.1976  -4.0237  -4.0017
    -1.7614  -0.8765  -0.4425   0.4946   1.8192   2.3848   3.3806   4.2828
     4.9797   5.4403   6.3909   7.5109   7.8325   7.9576   8.4991   8.9392
     9.1701   9.2826   9.8106  10.6519  11.0131  11.2942  12.3604  12.7544
    15.6068  16.1833  17.1081  17.1161  17.9187

          k = 0.0000 0.3750 0.2857 (  9438 PWs)   bands (ev):

   -21.6019 -21.5894  -4.9856  -4.9722  -4.1572  -4.1387  -4.0365  -3.9756
    -1.4972  -0.7877  -0.3387   0.4458   1.2416   2.2547   3.3414   4.8497
     5.4548   6.2307   6.4733   6.9922   7.7222   7.9827   8.1637   8.7987
     9.1095   9.9384  10.2750  10.3444  10.6414  11.4288  11.4568  12.6552
    15.5475  16.0548  16.5472  16.9764  17.5850

          k = 0.0000 0.3750 0.4286 (  9461 PWs)   bands (ev):

   -21.5968 -21.5924  -5.0976  -5.0829  -4.1073  -4.0639  -4.0578  -3.9821
    -1.1796  -0.8914  -0.2429   0.1905   1.2171   2.1541   3.4303   4.7513
     6.3208   6.4410   6.5482   7.1042   7.7626   7.9164   8.1321   8.5960
     9.1019   9.3254  10.4870  10.5422  10.6730  10.7317  11.7041  12.4756
    15.2920  15.5153  16.8127  16.9036  17.2165

          k = 0.0000-0.5000 0.0000 (  9370 PWs)   bands (ev):

   -21.5971 -21.5971  -4.8204  -4.8204  -4.1277  -4.1277  -4.0997  -4.0997
    -1.3272  -1.3272  -0.0627  -0.0627   2.4034   2.4034   3.5386   3.5386
     4.9687   4.9687   7.0184   7.0184   8.3694   8.3694   8.9494   8.9494
     9.3462   9.3462   9.3593   9.3593  11.7291  11.7291  12.4175  12.4175
    15.6204  15.6204  16.9139  16.9140  18.2504

          k = 0.0000-0.5000 0.1429 (  9426 PWs)   bands (ev):

   -21.5965 -21.5965  -4.8908  -4.8852  -4.1186  -4.1119  -4.0958  -4.0776
    -1.2582  -1.2389  -0.0985   0.0308   1.8384   2.3432   3.4158   4.3358
     4.9164   5.3845   6.9885   6.9949   8.1254   8.1645   8.5812   9.1964
     9.2880   9.4167   9.5292   9.7202  11.4835  11.7436  12.0295  12.4255
    15.6174  15.7242  16.8718  16.8947  17.8325

          k = 0.0000-0.5000 0.2857 (  9440 PWs)   bands (ev):

   -21.5952 -21.5952  -5.0364  -5.0237  -4.0980  -4.0870  -4.0667  -4.0246
    -1.1177  -1.0773  -0.1749   0.1642   1.3064   2.2123   3.3775   4.8015
     5.6309   6.1565   6.7884   6.9285   7.8986   7.9203   8.3466   8.9423
     9.0788   9.3042  10.1960  10.3679  10.8978  11.1376  11.7674  12.4336
    15.5248  15.6535  16.7981  16.8300  17.3739

          k = 0.0000-0.5000 0.4286 (  9452 PWs)   bands (ev):

   -21.5941 -21.5941  -5.1429  -5.1272  -4.0813  -4.0798  -4.0237  -3.9789
    -1.0012  -0.9909  -0.2223   0.0769   1.2555   2.1111   3.4986   4.7120
     6.4126   6.4301   7.0215   7.2513   7.7987   7.8014   8.3957   8.4751
     8.6055   9.1701  10.3346  10.3576  10.8232  10.8496  11.7636  12.4160
    15.1924  15.2141  16.7533  16.9967  17.4708

          k = 0.1250 0.1250 0.0000 (  9463 PWs)   bands (ev):

   -21.6214 -21.5771  -4.5250  -4.3499  -4.3399  -4.3282  -3.9165  -3.9034
    -2.7968  -0.9748  -0.9400   1.9657   2.0602   2.6057   3.3802   3.8724
     4.8448   5.4073   5.8189   5.9868   7.4924   7.9179   8.0224   9.2663
     9.5472   9.7225   9.8404   9.9212  10.3506  12.9144  13.0612  13.3050
    16.7792  16.9280  17.4390  17.8887  18.2459

          k = 0.1250 0.1250 0.1429 (  9449 PWs)   bands (ev):

   -21.6187 -21.5787  -4.5250  -4.4905  -4.4733  -4.2380  -3.9288  -3.9247
    -2.5634  -0.8595  -0.8539   1.8472   1.9432   1.9686   3.9058   3.9605
     4.9064   5.6934   5.7488   5.9728   7.3905   8.2632   8.2746   8.9620
     9.6863   9.7175   9.9253  10.0538  10.0728  12.7292  12.9348  12.9668
    16.8028  16.9423  17.0373  17.4893  17.9317

          k = 0.1250 0.1250 0.2857 (  9447 PWs)   bands (ev):

   -21.6112 -21.5835  -4.7409  -4.7211  -4.3952  -4.1542  -4.0033  -3.9498
    -2.0536  -0.7233  -0.6245   0.9499   1.7840   1.9569   4.0010   4.0761
     5.3117   5.4697   5.9680   6.8673   7.3978   8.4235   8.5305   8.7148
     9.2909   9.6209   9.7909  10.5520  10.6577  11.5766  12.6730  12.6761
    15.9921  16.6230  17.3080  17.3758  17.4153

          k = 0.1250 0.1250 0.4286 (  9449 PWs)   bands (ev):

   -21.6013 -21.5914  -4.8822  -4.8784  -4.2620  -4.1240  -4.0676  -3.9981
    -1.4688  -0.9483  -0.2517   0.2562   1.8079   1.9027   4.0849   4.0879
     5.2705   5.3194   6.6584   7.2365   7.9752   7.9848   8.3618   9.1266
     9.1576   9.6172   9.7336  10.0931  11.3019  11.3990  12.2248  12.2938
    15.6787  15.8957  16.9220  16.9393  17.7735

          k = 0.1250 0.2500 0.0000 (  9448 PWs)   bands (ev):

   -21.6152 -21.5812  -4.6843  -4.5967  -4.2921  -4.2831  -3.9572  -3.9379
    -2.3261  -0.8220  -0.7540   1.1826   1.9425   2.5003   3.3600   4.0548
     5.1740   5.4243   5.7500   6.7169   7.6135   8.1862   8.5571   8.9489
     9.1176   9.4447   9.7932  10.3559  10.7039  11.9830  12.8070  13.1082
    16.0169  17.0574  17.3095  17.5976  17.6746

          k = 0.1250 0.2500 0.1429 (  9442 PWs)   bands (ev):

   -21.6129 -21.5823  -4.6951  -4.6813  -4.4383  -4.1622  -3.9847  -3.9446
    -2.1557  -0.7132  -0.6764   1.1502   1.7287   1.9153   3.9966   4.1779
     5.2860   5.5621   5.8589   6.5662   7.3516   8.5115   8.5645   8.6532
     9.4277   9.6628   9.8107  10.3585  10.4835  11.8910  12.6538  12.7416
    16.1879  16.8000  17.1881  17.2664  17.4291

          k = 0.1250 0.2500 0.2857 (  9455 PWs)   bands (ev):

   -21.6069 -21.5857  -4.8521  -4.8234  -4.4311  -4.0807  -4.0360  -3.9762
    -1.7530  -0.5973  -0.4746   0.8780   1.1681   1.7882   3.9956   4.9477
     5.2428   5.9977   6.2546   6.5946   7.1816   8.1284   8.4971   8.9088
     9.3489   9.8790  10.0332  10.3436  10.8430  11.2654  11.8906  12.5336
    16.0256  16.3619  16.7164  17.1479  17.2627

          k = 0.1250 0.2500 0.4286 (  9453 PWs)   bands (ev):

   -21.5990 -21.5915  -4.9692  -4.9549  -4.3018  -4.1536  -4.0247  -3.9914
    -1.2648  -0.8038  -0.2006   0.2876   1.2517   1.7465   4.0293   5.0257
     5.3875   5.9993   6.6329   6.9232   7.6482   7.9404   8.2480   9.0008
     9.1315   9.8555  10.0491  10.1645  10.9056  11.4001  11.4933  12.2128
    15.7637  15.9057  16.5639  16.8921  17.4474

          k = 0.1250 0.3750 0.0000 (  9433 PWs)   bands (ev):

   -21.6063 -21.5879  -4.8263  -4.7949  -4.2020  -4.2011  -4.0229  -4.0055
    -1.7860  -0.8909  -0.4560   0.4954   1.9180   2.3980   3.3952   4.1431
     4.9931   5.3562   6.3816   7.5814   7.8566   7.9546   8.5445   8.9146
     9.0859   9.3153   9.7434  10.6775  11.0595  11.2814  12.4539  12.7612
    15.5794  16.2072  17.1304  17.1457  17.9917

          k = 0.1250 0.3750 0.1429 (  9448 PWs)   bands (ev):

   -21.6048 -21.5882  -4.8505  -4.8476  -4.3269  -4.0974  -4.0727  -3.9756
    -1.6614  -0.7963  -0.3932   0.4900   1.7054   1.8835   4.0558   4.2144
     5.2973   5.4283   6.4224   7.3099   7.5745   8.1111   8.2840   8.9976
     9.2456   9.6330   9.8020  10.5903  11.0184  11.1337  12.3235  12.4276
    15.7634  16.0991  16.9925  17.0624  17.6999

          k = 0.1250 0.3750 0.2857 (  9444 PWs)   bands (ev):

   -21.6009 -21.5895  -4.9697  -4.9465  -4.3474  -4.1069  -4.0336  -3.9936
    -1.3706  -0.6542  -0.2971   0.4642   1.1006   1.7335   4.0185   5.1260
     5.5060   6.2392   6.4883   6.8570   7.3284   7.9058   8.3200   8.8976
     9.1402  10.1044  10.2016  10.2901  10.6463  11.2579  11.3786  12.3025
    15.7723  16.0432  16.4081  16.9828  17.4547

          k = 0.1250 0.3750 0.4286 (  9453 PWs)   bands (ev):

   -21.5962 -21.5921  -5.0634  -5.0467  -4.2563  -4.1475  -4.0327  -4.0038
    -1.0316  -0.7297  -0.2092   0.2116   1.0538   1.6883   4.0721   5.0873
     6.3471   6.3735   6.4693   7.0637   7.5553   7.8130   8.3248   8.6720
     9.0667   9.3340  10.3447  10.4932  10.5783  10.7270  11.4968  12.1232
    15.5804  15.6803  16.5743  17.1131  17.3626

          k = 0.1250-0.5000 0.0000 (  9432 PWs)   bands (ev):

   -21.5966 -21.5966  -4.8755  -4.8710  -4.1206  -4.1157  -4.0967  -4.0826
    -1.2730  -1.2577  -0.0906   0.0108   1.9294   2.3565   3.4348   4.1895
     4.9280   5.2982   6.9980   7.0010   8.1627   8.2007   8.6369   9.2204
     9.3123   9.3288   9.5176   9.6461  11.5386  11.7405  12.1158  12.4239
    15.6164  15.7055  16.8806  16.9093  17.9202

          k = 0.1250-0.5000 0.1429 (  9456 PWs)   bands (ev):

   -21.5961 -21.5961  -4.9094  -4.9082  -4.2009  -4.2001  -4.0255  -4.0239
    -1.1697  -1.1655  -0.0246   0.0045   1.7620   1.8398   4.0811   4.2409
     5.2779   5.3710   6.9453   6.9494   7.9593   7.9632   8.7591   8.8436
     9.4616   9.5040   9.7259   9.7579  11.4840  11.5394  12.0338  12.1201
    15.7290  15.7465  16.8417  16.8420  17.7046

          k = 0.1250-0.5000 0.2857 (  9448 PWs)   bands (ev):

   -21.5948 -21.5948  -5.0124  -5.0017  -4.2269  -4.2197  -4.0141  -3.9968
    -0.9884  -0.9551  -0.1148   0.1649   1.1752   1.7168   4.0423   5.0784
     5.6843   6.1694   6.6658   6.8292   7.7662   7.8400   8.4165   8.8878
     9.1684   9.3415  10.1676  10.3078  10.9142  11.0900  11.5678  12.1022
    15.7281  15.7639  16.6478  16.7852  17.4747

          k = 0.1250-0.5000 0.4286 (  9462 PWs)   bands (ev):

   -21.5937 -21.5937  -5.1020  -5.0871  -4.1815  -4.1783  -4.0467  -4.0117
    -0.8309  -0.8202  -0.1925   0.0856   1.0880   1.6771   4.1175   5.0647
     6.2966   6.3100   7.0356   7.3016   7.7435   7.8115   8.3731   8.5247
     8.6248   9.1090  10.2691  10.3207  10.6589  10.6720  11.5653  12.0626
    15.5095  15.5142  16.7063  17.2252  17.2577

          k = 0.2500 0.2500 0.0000 (  9423 PWs)   bands (ev):

   -21.6101 -21.5841  -4.8179  -4.7826  -4.2436  -4.2357  -3.9850  -3.9405
    -1.9951  -0.7294  -0.5690   1.0031   1.3377   2.3926   3.3040   4.7926
     5.0186   5.8343   6.2109   6.5260   7.6073   8.0998   8.5594   9.1456
     9.2025   9.3224  10.0813  10.2071  10.9624  11.5478  12.1023  12.9586
    15.9451  16.6349  17.0202  17.1936  17.5878

          k = 0.2500 0.2500 0.1429 (  9449 PWs)   bands (ev):

   -21.6082 -21.5848  -4.8175  -4.7716  -4.4845  -4.0841  -4.0249  -3.9790
    -1.8297  -0.5800  -0.5131   1.0386   1.1651   1.6964   4.1311   4.8253
     5.3141   5.9034   6.2155   6.4361   7.1334   8.1538   8.6056   8.8637
     9.4686   9.9312   9.9540  10.2408  10.6693  11.5151  12.0074  12.4958
    16.1775  16.4328  16.8412  17.0759  17.1700

          k = 0.2500 0.2500 0.2857 (  9435 PWs)   bands (ev):

   -21.6033 -21.5871  -4.9037  -4.7427  -4.6443  -4.0913  -4.0600  -4.0175
    -1.4474  -0.3728  -0.3498   0.8429   0.9796   1.1170   4.9285   5.0696
     5.7299   6.1788   6.3394   6.4737   6.7053   7.6638   8.7742   8.8551
     9.6313   9.7998  10.2515  10.4325  10.6170  11.1028  11.6591  11.7094
    16.1151  16.4340  16.5682  16.7218  16.7459

          k = 0.2500 0.2500 0.4286 (  9459 PWs)   bands (ev):

   -21.5971 -21.5913  -4.9650  -4.9183  -4.4613  -4.2626  -4.0409  -4.0122
    -0.9954  -0.5608  -0.0852   0.3004   1.0210   1.1425   5.0844   5.2200
     5.9664   6.0768   6.4899   6.5273   7.3970   7.9853   8.1523   9.0814
     9.1249   9.7958  10.0323  10.2761  10.7179  11.0711  11.2996  11.4331
    16.0877  16.0879  16.3118  16.9426  17.2675

          k = 0.2500 0.3750 0.0000 (  9443 PWs)   bands (ev):

   -21.6030 -21.5890  -4.9476  -4.9332  -4.1689  -4.1575  -4.0321  -3.9803
    -1.5714  -0.7991  -0.3607   0.4749   1.3331   2.2884   3.3338   4.8830
     5.1677   6.0319   6.4552   7.0948   7.7345   7.9827   8.2400   8.8782
     9.1337   9.7430  10.2206  10.4098  10.7227  11.4061  11.6689  12.6884
    15.6160  16.0955  16.6698  17.0131  17.7338

          k = 0.2500 0.3750 0.1429 (  9445 PWs)   bands (ev):

   -21.6018 -21.5891  -4.9384  -4.9097  -4.3855  -4.1185  -4.0327  -3.9912
    -1.4177  -0.6483  -0.3005   0.4839   1.1790   1.6557   4.1639   5.0610
     5.3884   6.0323   6.4832   6.9052   7.3110   7.9345   8.2998   8.9780
     9.2149  10.0081  10.1145  10.3766  10.7241  11.1675  11.6081  12.2401
    15.8721  16.0508  16.5011  16.9749  17.4600

          k = 0.2500 0.3750 0.2857 (  9467 PWs)   bands (ev):

   -21.5985 -21.5897  -4.9589  -4.8639  -4.5572  -4.2093  -4.0792  -4.0120
    -1.0747  -0.3778  -0.1732   0.4895   0.8537   1.0775   5.1142   5.4810
     5.9449   6.2557   6.4305   6.5030   7.0302   7.6399   8.4779   8.9498
     9.3243   9.9251  10.1622  10.3606  10.5232  10.9204  11.1963  11.4148
    16.1191  16.2296  16.2628  16.8436  17.1697

          k = 0.2500 0.3750 0.4286 (  9479 PWs)   bands (ev):

   -21.5946 -21.5915  -4.9812  -4.9363  -4.4757  -4.3016  -4.1310  -4.0642
    -0.6984  -0.3588  -0.1005   0.2843   0.7270   1.0467   5.2232   5.8888
     6.0711   6.1442   6.4879   7.0420   7.4443   7.8105   8.4207   8.7919
     9.0308   9.3726   9.9903  10.2728  10.3423  10.5488  10.9459  11.1904
    16.1804  16.2440  16.4744  17.2478  17.3311

          k = 0.2500-0.5000 0.0000 (  9440 PWs)   bands (ev):

   -21.5955 -21.5955  -4.9996  -4.9883  -4.1035  -4.0893  -4.0796  -4.0389
    -1.1539  -1.1145  -0.1559   0.1476   1.3931   2.2462   3.3651   4.8314
     5.2959   5.9708   6.8586   6.9397   7.9424   7.9704   8.3622   9.0449
     9.0939   9.4167   9.9984  10.2079  11.0585  11.3772  11.7629  12.4334
    15.5841  15.7290  16.7868  16.8147  17.4088

          k = 0.2500-0.5000 0.1429 (  9454 PWs)   bands (ev):

   -21.5950 -21.5950  -4.9797  -4.9719  -4.2520  -4.2462  -4.0086  -3.9973
    -1.0026  -0.9765  -0.0699   0.1351   1.2502   1.6406   4.1874   5.0484
     5.4803   5.9854   6.7240   6.8127   7.7779   7.8319   8.4870   8.8500
     9.2876   9.4427  10.0616  10.1722  11.0586  11.2941  11.5396  12.0166
    15.8047  15.8378  16.6461  16.7191  17.5335

          k = 0.2500-0.5000 0.2857 (  9474 PWs)   bands (ev):

   -21.5937 -21.5937  -4.9590  -4.9558  -4.3828  -4.3805  -4.0446  -4.0405
    -0.6960  -0.6879   0.0619   0.1427   0.9572   1.0692   5.1836   5.4769
     6.0771   6.1781   6.3701   6.4998   7.7797   7.8209   8.4852   8.5963
     9.3091   9.3316  10.1441  10.1815  10.7947  10.8306  11.1433  11.2750
    16.0854  16.1139  16.6312  16.6856  17.4320

          k = 0.2500-0.5000 0.4286 (  9486 PWs)   bands (ev):

   -21.5926 -21.5926  -4.9856  -4.9735  -4.3727  -4.3697  -4.1489  -4.1270
    -0.4371  -0.4298  -0.0875   0.1241   0.7499   1.0594   5.2736   5.9093
     5.9397   5.9683   7.1259   7.4286   7.8168   7.9593   8.3152   8.5842
     8.6726   8.9653  10.0038  10.0648  10.2536  10.3156  10.9425  11.0955
    16.2477  16.2853  16.8473  17.0703  17.6641

          k = 0.3750 0.3750 0.0000 (  9466 PWs)   bands (ev):

   -21.5987 -21.5911  -5.0664  -5.0522  -4.1260  -4.0869  -4.0517  -3.9747
    -1.3003  -0.8228  -0.2830   0.2929   1.1897   2.1825   3.3952   4.7789
     6.0802   6.4717   6.5004   7.0192   7.7322   7.9949   7.9983   8.6286
     9.0936   9.7422  10.3663  10.5110  10.5874  10.9339  11.6096  12.5470
    15.3533  15.7250  16.6622  16.8778  17.3043

          k = 0.3750 0.3750 0.1429 (  9456 PWs)   bands (ev):

   -21.5978 -21.5909  -5.0300  -5.0053  -4.3301  -4.1405  -4.0367  -4.0076
    -1.1203  -0.6180  -0.2428   0.3302   0.9820   1.5995   4.1991   5.1996
     6.1246   6.4041   6.4495   6.9631   7.3035   7.7741   8.4124   8.7037
     9.0783   9.7448  10.2972  10.4141  10.5411  10.8783  11.3438  12.0868
    15.7051  15.8509  16.4148  17.0704  17.3867

          k = 0.3750 0.3750 0.2857 (  9479 PWs)   bands (ev):

   -21.5954 -21.5907  -4.9586  -4.8577  -4.5925  -4.2794  -4.1763  -4.0606
    -0.7386  -0.1794  -0.1264   0.4493   0.6011   0.8797   5.5401   6.0364
     6.0405   6.2613   6.2639   6.9463   7.1445   7.6190   8.6491   8.7354
     9.2433   9.7454   9.8046  10.1720  10.3885  10.6059  10.7548  10.9423
    16.2951  16.3758  16.4806  17.0060  17.1855

          k = 0.3750 0.3750 0.4286 (  9470 PWs)   bands (ev):

   -21.5929 -21.5912  -4.8903  -4.7884  -4.6389  -4.3940  -4.2920  -4.1819
    -0.3630  -0.0562   0.0611   0.3640   0.5104   0.5738   5.6727   5.6929
     6.4610   6.6079   6.9275   7.1999   7.5404   7.8769   8.5332   8.8395
     9.0719   9.3256   9.5445   9.7641  10.0487  10.0778  10.2018  10.2828
    16.7207  16.9281  16.9528  17.2776  17.3555

          k = 0.3750-0.5000 0.0000 (  9450 PWs)   bands (ev):

   -21.5944 -21.5944  -5.1133  -5.0983  -4.0861  -4.0819  -4.0365  -3.9922
    -1.0365  -1.0111  -0.2107   0.1242   1.2391   2.1397   3.4511   4.7373
     6.3835   6.4114   6.6837   7.0647   7.8233   7.8312   8.3991   8.6459
     8.8764   9.1175  10.5137  10.5917  10.6366  10.7105  11.7687  12.4251
    15.3024  15.3625  16.7678  17.1820  17.1855

          k = 0.3750-0.5000 0.1429 (  9456 PWs)   bands (ev):

   -21.5939 -21.5939  -5.0652  -5.0516  -4.2276  -4.2212  -4.0380  -4.0115
    -0.8364  -0.8121  -0.1574   0.1413   1.0352   1.5895   4.2350   5.1728
     6.3122   6.3439   6.5738   7.0585   7.7175   7.8292   8.3835   8.7290
     8.9367   9.0688  10.2976  10.4911  10.5648  10.6499  11.4995  11.9731
    15.6484  15.6648  16.6597  17.0436  17.5946

          k = 0.3750-0.5000 0.2857 (  9480 PWs)   bands (ev):

   -21.5926 -21.5926  -4.9376  -4.9298  -4.4381  -4.4344  -4.1445  -4.1335
    -0.4193  -0.4115   0.0324   0.1967   0.6797   0.8921   5.5935   5.9014
     5.9403   6.1883   6.6806   7.0809   7.8496   7.9750   8.3507   8.6031
     9.0323   9.0833   9.9802  10.0621  10.2447  10.3399  10.7527  10.8281
    16.3653  16.4277  16.8758  16.9837  17.5846

          k = 0.3750-0.5000 0.4286 (  9480 PWs)   bands (ev):

   -21.5916 -21.5916  -4.8178  -4.8125  -4.5270  -4.5256  -4.3111  -4.3044
    -0.0896  -0.0766   0.1385   0.2159   0.4632   0.5693   5.5062   5.5069
     6.6244   7.0065   7.3306   7.5898   8.0913   8.1796   8.3426   8.5214
     8.7940   8.9332   9.6053   9.6315   9.6924   9.7254   9.9422   9.9990
    17.0984  17.1166  17.4005  17.4209  17.6906

          k =-0.5000-0.5000 0.0000 (  9476 PWs)   bands (ev):

   -21.5940 -21.5940  -5.1578  -5.1418  -4.0788  -4.0788  -4.0170  -3.9720
    -0.9821  -0.9821  -0.2274   0.0463   1.2720   2.0966   3.5271   4.6991
     6.3948   6.3948   7.3892   7.3892   7.7871   7.7871   8.1640   8.3591
     8.5642   9.2108  10.2318  10.2318  10.9223  10.9223  11.7588  12.4092
    15.1340  15.1340  16.7392  16.9084  17.6816

          k =-0.5000-0.5000 0.1429 (  9460 PWs)   bands (ev):

   -21.5934 -21.5934  -5.1023  -5.0872  -4.1916  -4.1916  -4.0699  -4.0313
    -0.7529  -0.7529  -0.1962   0.0517   1.0582   1.5850   4.2841   5.1597
     6.2203   6.2203   7.4635   7.4635   7.8167   7.8167   8.1443   8.3541
     8.5196   9.1182  10.1876  10.1876  10.6430  10.6430  11.5069  11.9483
    15.5740  15.5740  16.7369  17.2177  17.3339

          k =-0.5000-0.5000 0.2857 (  9496 PWs)   bands (ev):

   -21.5921 -21.5921  -4.9444  -4.9323  -4.4084  -4.4084  -4.2223  -4.1992
    -0.2458  -0.2458  -0.0954   0.0793   0.6639   0.9141   5.6678   5.7466
     5.7466   6.2661   7.6920   7.6920   8.0616   8.0616   8.1107   8.3586
     8.4167   8.9020   9.8523   9.8523  10.0932  10.0932  10.6623  10.7078
    16.5855  16.5855  17.0526  17.2579  17.6606

          k =-0.5000-0.5000 0.4286 (  9472 PWs)   bands (ev):

   -21.5911 -21.5911  -4.7099  -4.7046  -4.5569  -4.5569  -4.4495  -4.4429
     0.0970   0.1623   0.1750   0.1750   0.3468   0.4191   5.3181   5.3181
     7.2562   7.6111   7.9691   7.9691   8.0915   8.3608   8.3812   8.5346
     8.5346   8.6940   9.1382   9.3448   9.3950   9.3950   9.4829   9.4829
    17.6044  17.6044  17.7736  17.7738  17.8080

     the Fermi energy is    12.1711 ev

!    total energy              =    -244.42238789 Ry
     estimated scf accuracy    <       0.00000011 Ry
     smearing contrib. (-TS)   =      -0.00014225 Ry
     internal energy E=F+TS    =    -244.42224564 Ry

     The total energy is F=E-TS. E is the sum of the following terms:
     one-electron contribution =      43.54417654 Ry
     hartree contribution      =      18.87212091 Ry
     xc contribution           =     -74.35095001 Ry
     ewald contribution        =    -232.48759309 Ry

     convergence has been achieved in   9 iterations

     Forces acting on atoms (cartesian axes, Ry/au):

     atom    1 type  1   force =     0.00000000    0.00000000    0.00000000
     atom    2 type  1   force =     0.00000000    0.00000000    0.00000000
     atom    3 type  2   force =     0.00000000    0.00000000    0.00000000
     atom    4 type  2   force =    -0.00000000   -0.00000000    0.00000000
     atom    5 type  2   force =     0.00000000    0.00000000    0.00000000
     atom    6 type  2   force =     0.00000000    0.00000000    0.00000000
     atom    7 type  2   force =    -0.00000000   -0.00000000    0.00000000
     atom    8 type  2   force =     0.00000000    0.00000000    0.00000000
     atom    9 type  3   force =     0.00000000    0.00000000    0.00000000
     atom   10 type  3   force =     0.00000000    0.00000000    0.00000000
     atom   11 type  3   force =     0.00000000    0.00000000    0.00000000
     atom   12 type  3   force =    -0.00000000    0.00000000    0.00000000
     atom   13 type  3   force =    -0.00000000    0.00000000    0.00000000
     atom   14 type  3   force =     0.00000000   -0.00000000   -0.00000000

     Total force =     0.000000     Total SCF correction =     0.000000


     Computing stress (Cartesian axis) and pressure

          total   stress  (Ry/bohr**3)                   (kbar)     P=        2.54
   0.00001728   0.00000000   0.00000000            2.54        0.00        0.00
   0.00000000   0.00001728   0.00000000            0.00        2.54        0.00
   0.00000000   0.00000000   0.00001728            0.00        0.00        2.54


     Writing all to output data dir ./output/SrB3C3.save/ :
     XML data file, charge density, pseudopotentials, collected wavefunctions

     init_run     :     10.99s CPU     11.68s WALL (       1 calls)
     electrons    :    210.20s CPU    219.97s WALL (       1 calls)
     forces       :      4.08s CPU      4.14s WALL (       1 calls)
     stress       :     32.17s CPU     32.25s WALL (       1 calls)

     Called by init_run:
     wfcinit      :     10.34s CPU     10.96s WALL (       1 calls)
     potinit      :      0.06s CPU      0.07s WALL (       1 calls)
     hinit0       :      0.33s CPU      0.37s WALL (       1 calls)

     Called by electrons:
     c_bands      :    194.91s CPU    203.27s WALL (       9 calls)
     sum_band     :     15.02s CPU     16.32s WALL (       9 calls)
     v_of_rho     :      0.25s CPU      0.27s WALL (      10 calls)
     mix_rho      :      0.04s CPU      0.04s WALL (       9 calls)

     Called by c_bands:
     init_us_2    :      2.20s CPU      2.32s WALL (    1260 calls)
     init_us_2:cp :      2.20s CPU      2.32s WALL (    1260 calls)
     cegterg      :    188.41s CPU    196.64s WALL (     540 calls)

     Called by *egterg:
     cdiaghg      :      7.44s CPU      7.54s WALL (    3062 calls)
     h_psi        :    139.64s CPU    147.93s WALL (    3122 calls)
     g_psi        :      0.69s CPU      0.69s WALL (    2522 calls)

     Called by h_psi:
     h_psi:calbec :     25.37s CPU     25.97s WALL (    3122 calls)
     vloc_psi     :     89.47s CPU     97.05s WALL (    3122 calls)
     add_vuspsi   :     24.47s CPU     24.55s WALL (    3122 calls)

     General routines
     calbec       :     30.45s CPU     31.11s WALL (    3422 calls)
     fft          :      0.32s CPU      0.38s WALL (     124 calls)
     ffts         :      0.01s CPU      0.01s WALL (       9 calls)
     fftw         :     95.89s CPU    104.06s WALL (  146032 calls)

     Parallel routines

     PWSCF        :   4m17.84s CPU   4m36.04s WALL


   This run was terminated on:  17:49:50  26Mar2024            

=------------------------------------------------------------------------------=
   JOB DONE.
=------------------------------------------------------------------------------=
